
     Program PWSCF v.7.2 starts on 16Feb2024 at  9:43:20 

     This program is part of the open-source Quantum ESPRESSO suite
     for quantum simulation of materials; please cite
         "P. Giannozzi et al., J. Phys.:Condens. Matter 21 395502 (2009);
         "P. Giannozzi et al., J. Phys.:Condens. Matter 29 465901 (2017);
         "P. Giannozzi et al., J. Chem. Phys. 152 154105 (2020);
          URL http://www.quantum-espresso.org", 
     in publications or presentations arising from this work. More details at
     http://www.quantum-espresso.org/quote

     Serial version
     212246 MiB available memory on the printing compute node when the environment starts

     Waiting for input...
     Reading input from standard input
     Message from routine read_cards :
     DEPRECATED: no units specified in CELL_PARAMETERS card

     Current dimensions of program PWSCF are:
     Max number of different atomic species (ntypx) = 10
     Max number of k-points (npk) =  40000
     Max angular momentum in pseudopotentials (lmaxx) =  4
     file Cl.pbesol-nl-rrkjus_psl.1.0.0.UPF: wavefunction(s)  3S renormalized
     Message from routine setup:
     using ibrav=0 with symmetry is DISCOURAGED, use correct ibrav instead


     G-vector sticks info
     --------------------
     sticks:   dense  smooth     PW     G-vecs:    dense   smooth      PW
     Sum        2565    1075    317                98093    26399    4261

     Using Slab Decomposition



     bravais-lattice index     =            0
     lattice parameter (alat)  =      11.5082  a.u.
     unit-cell volume          =    1561.8144 (a.u.)^3
     number of atoms/cell      =            8
     number of atomic types    =            2
     number of electrons       =        64.00
     number of Kohn-Sham states=           38
     kinetic-energy cutoff     =      25.0000  Ry
     charge density cutoff     =     240.0000  Ry
     scf convergence threshold =      1.0E-06
     mixing beta               =       0.4000
     number of iterations used =            8  plain     mixing
     Exchange-correlation= PBESOL
                           (   1   4  10   8   0   0   0)

     celldm(1)=  11.508200  celldm(2)=   0.000000  celldm(3)=   0.000000
     celldm(4)=   0.000000  celldm(5)=   0.000000  celldm(6)=   0.000000

     crystal axes: (cart. coord. in units of alat)
               a(1) = (   1.000000   0.000000   0.000000 )  
               a(2) = (   0.500000   1.012287   0.000000 )  
               a(3) = (  -0.500000  -0.000000   1.012287 )  

     reciprocal axes: (cart. coord. in units 2 pi/alat)
               b(1) = (  1.000000 -0.493931  0.493931 )  
               b(2) = ( -0.000000  0.987862  0.000000 )  
               b(3) = (  0.000000  0.000000  0.987862 )  


     PseudoPot. # 1 for Na read from file:
     /home/itai/qe-7.2/pseudo/Na.pbesol-spnl-rrkjus_psl.1.0.0.UPF
     MD5 check sum: a877ce1bb36eb1e28456348a4f8ce78e
     Pseudo is Ultrasoft + core correction, Zval =  9.0
     Generated using &quot;atomic&quot; code by A. Dal Corso  v.6.3
     Using radial grid of 1121 points,  4 beta functions with: 
                l(1) =   0
                l(2) =   0
                l(3) =   1
                l(4) =   1
     Q(r) pseudized with 0 coefficients 


     PseudoPot. # 2 for Cl read from file:
     /home/itai/qe-7.2/pseudo/Cl.pbesol-nl-rrkjus_psl.1.0.0.UPF
     MD5 check sum: f0dc11ec2dd79ae0f948701819dbff24
     Pseudo is Ultrasoft + core correction, Zval =  7.0
     Generated using &quot;atomic&quot; code by A. Dal Corso  v.6.3
     Using radial grid of 1157 points,  4 beta functions with: 
                l(1) =   0
                l(2) =   0
                l(3) =   1
                l(4) =   1
     Q(r) pseudized with 0 coefficients 


     atomic species   valence    mass     pseudopotential
        Na             9.00    22.98977     Na( 1.00)
        Cl             7.00    35.45270     Cl( 1.00)

     16 Sym. Ops., with inversion, found ( 8 have fractional translation)


                                    s                        frac. trans.

      isym =  1     identity                                     

 cryst.   s( 1) = (     1          0          0      )
                  (     0          1          0      )
                  (     0          0          1      )

 cart.    s( 1) = (  1.0000000  0.0000000  0.0000000 )
                  (  0.0000000  1.0000000  0.0000000 )
                  (  0.0000000  0.0000000  1.0000000 )


      isym =  2     180 deg rotation - cart. axis [0,0,1]        

 cryst.   s( 2) = (    -1          0          0      )
                  (     0         -1          0      )
                  (     1          0          1      )

 cart.    s( 2) = ( -1.0000000  0.0000000  0.0000000 )
                  (  0.0000000 -1.0000000  0.0000000 )
                  (  0.0000000  0.0000000  1.0000000 )


      isym =  3     180 deg rotation - cart. axis [0,1,0]        

 cryst.   s( 3) = (    -1          0          0      )
                  (    -1          1          0      )
                  (     0          0         -1      )

 cart.    s( 3) = ( -1.0000000  0.0000000  0.0000000 )
                  (  0.0000000  1.0000000  0.0000000 )
                  (  0.0000000  0.0000000 -1.0000000 )


      isym =  4     180 deg rotation - cart. axis [1,0,0]        

 cryst.   s( 4) = (     1          0          0      )
                  (     1         -1          0      )
                  (    -1          0         -1      )

 cart.    s( 4) = (  1.0000000  0.0000000  0.0000000 )
                  (  0.0000000 -1.0000000  0.0000000 )
                  (  0.0000000  0.0000000 -1.0000000 )


      isym =  5     180 deg rotation - cart. axis [0,1,1]        

 cryst.   s( 5) = (    -1          0          0      )    f =(  0.2500000 )
                  (     0          0          1      )       (  0.5000000 )
                  (     0          1          0      )       (  0.5000000 )

 cart.    s( 5) = ( -1.0000000  0.0000000  0.0000000 )    f =(  0.2500000 )
                  (  0.0000000  0.0000000  1.0000000 )       (  0.5061434 )
                  (  0.0000000  1.0000000  0.0000000 )       (  0.5061434 )


      isym =  6     180 deg rotation - cart. axis [0,1,-1]       

 cryst.   s( 6) = (    -1          0          0      )    f =(  0.2500000 )
                  (    -1          0         -1      )       (  0.5000000 )
                  (     1         -1          0      )       (  0.5000000 )

 cart.    s( 6) = ( -1.0000000  0.0000000  0.0000000 )    f =(  0.2500000 )
                  (  0.0000000  0.0000000 -1.0000000 )       (  0.5061434 )
                  (  0.0000000 -1.0000000  0.0000000 )       (  0.5061434 )


      isym =  7      90 deg rotation - cart. axis [-1,0,0]       

 cryst.   s( 7) = (     1          0          0      )    f =(  0.2500000 )
                  (     0          0         -1      )       (  0.5000000 )
                  (    -1          1          0      )       (  0.5000000 )

 cart.    s( 7) = (  1.0000000  0.0000000  0.0000000 )    f =(  0.2500000 )
                  (  0.0000000  0.0000000  1.0000000 )       (  0.5061434 )
                  (  0.0000000 -1.0000000  0.0000000 )       (  0.5061434 )


      isym =  8      90 deg rotation - cart. axis [1,0,0]        

 cryst.   s( 8) = (     1          0          0      )    f =(  0.2500000 )
                  (     1          0          1      )       (  0.5000000 )
                  (     0         -1          0      )       (  0.5000000 )

 cart.    s( 8) = (  1.0000000  0.0000000  0.0000000 )    f =(  0.2500000 )
                  (  0.0000000  0.0000000 -1.0000000 )       (  0.5061434 )
                  (  0.0000000  1.0000000  0.0000000 )       (  0.5061434 )


      isym =  9     inversion                                    

 cryst.   s( 9) = (    -1          0          0      )    f =(  0.2500000 )
                  (     0         -1          0      )       (  0.5000000 )
                  (     0          0         -1      )       (  0.5000000 )

 cart.    s( 9) = ( -1.0000000  0.0000000  0.0000000 )    f =(  0.2500000 )
                  (  0.0000000 -1.0000000  0.0000000 )       (  0.5061434 )
                  (  0.0000000  0.0000000 -1.0000000 )       (  0.5061434 )


      isym = 10     inv. 180 deg rotation - cart. axis [0,0,1]   

 cryst.   s(10) = (     1          0          0      )    f =(  0.2500000 )
                  (     0          1          0      )       (  0.5000000 )
                  (    -1          0         -1      )       (  0.5000000 )

 cart.    s(10) = (  1.0000000  0.0000000  0.0000000 )    f =(  0.2500000 )
                  (  0.0000000  1.0000000  0.0000000 )       (  0.5061434 )
                  (  0.0000000  0.0000000 -1.0000000 )       (  0.5061434 )


      isym = 11     inv. 180 deg rotation - cart. axis [0,1,0]   

 cryst.   s(11) = (     1          0          0      )    f =(  0.2500000 )
                  (     1         -1          0      )       (  0.5000000 )
                  (     0          0          1      )       (  0.5000000 )

 cart.    s(11) = (  1.0000000  0.0000000  0.0000000 )    f =(  0.2500000 )
                  (  0.0000000 -1.0000000  0.0000000 )       (  0.5061434 )
                  (  0.0000000  0.0000000  1.0000000 )       (  0.5061434 )


      isym = 12     inv. 180 deg rotation - cart. axis [1,0,0]   

 cryst.   s(12) = (    -1          0          0      )    f =(  0.2500000 )
                  (    -1          1          0      )       (  0.5000000 )
                  (     1          0          1      )       (  0.5000000 )

 cart.    s(12) = ( -1.0000000  0.0000000  0.0000000 )    f =(  0.2500000 )
                  (  0.0000000  1.0000000  0.0000000 )       (  0.5061434 )
                  (  0.0000000  0.0000000  1.0000000 )       (  0.5061434 )


      isym = 13     inv. 180 deg rotation - cart. axis [0,1,1]   

 cryst.   s(13) = (     1          0          0      )
                  (     0          0         -1      )
                  (     0         -1          0      )

 cart.    s(13) = (  1.0000000  0.0000000  0.0000000 )
                  (  0.0000000  0.0000000 -1.0000000 )
                  (  0.0000000 -1.0000000  0.0000000 )


      isym = 14     inv. 180 deg rotation - cart. axis [0,1,-1]  

 cryst.   s(14) = (     1          0          0      )
                  (     1          0          1      )
                  (    -1          1          0      )

 cart.    s(14) = (  1.0000000  0.0000000  0.0000000 )
                  (  0.0000000  0.0000000  1.0000000 )
                  (  0.0000000  1.0000000  0.0000000 )


      isym = 15     inv.  90 deg rotation - cart. axis [-1,0,0]  

 cryst.   s(15) = (    -1          0          0      )
                  (     0          0          1      )
                  (     1         -1          0      )

 cart.    s(15) = ( -1.0000000  0.0000000  0.0000000 )
                  (  0.0000000  0.0000000 -1.0000000 )
                  (  0.0000000  1.0000000  0.0000000 )


      isym = 16     inv.  90 deg rotation - cart. axis [1,0,0]   

 cryst.   s(16) = (    -1          0          0      )
                  (    -1          0         -1      )
                  (     0          1          0      )

 cart.    s(16) = ( -1.0000000  0.0000000  0.0000000 )
                  (  0.0000000  0.0000000  1.0000000 )
                  (  0.0000000 -1.0000000  0.0000000 )


   Cartesian axes

     site n.     atom                  positions (alat units)
         1           Na  tau(   1) = (   0.5752820   0.5061434   0.5061434  )
         2           Na  tau(   2) = (   0.8252820   0.0000000   0.0000000  )
         3           Na  tau(   3) = (   0.1747180   0.0000000   0.0000000  )
         4           Na  tau(   4) = (   0.9247180   0.5061434   0.5061434  )
         5           Cl  tau(   5) = (   1.1250000   0.7592152   0.2530717  )
         6           Cl  tau(   6) = (   0.1250000   0.2530717   0.7592152  )
         7           Cl  tau(   7) = (   0.3750000   0.2530717   0.2530717  )
         8           Cl  tau(   8) = (   0.3750000   0.7592152   0.7592152  )

   Crystallographic axes

     site n.     atom                  positions (cryst. coord.)
         1           Na  tau(   1) = (  0.5752820  0.5000000  0.5000000  )
         2           Na  tau(   2) = (  0.8252820  0.0000000  0.0000000  )
         3           Na  tau(   3) = (  0.1747180  0.0000000  0.0000000  )
         4           Na  tau(   4) = (  0.9247180  0.5000000  0.5000000  )
         5           Cl  tau(   5) = (  0.8750000  0.7500000  0.2500000  )
         6           Cl  tau(   6) = (  0.3750000  0.2500000  0.7500000  )
         7           Cl  tau(   7) = (  0.3750000  0.2500000  0.2500000  )
         8           Cl  tau(   8) = (  0.3750000  0.7500000  0.7500000  )

     number of k points=     6  Marzari-Vanderbilt smearing, width (Ry)=  0.0147
                       cart. coord. in units 2pi/alat
        k(    1) = (   0.0000000   0.0000000   0.0000000), wk =   0.1666667
        k(    2) = (   0.0000000   0.0000000  -0.4939311), wk =   0.3333333
        k(    3) = (   0.0000000  -0.4939311  -0.4939311), wk =   0.1666667
        k(    4) = (   0.3333333  -0.1646437   0.1646437), wk =   0.3333333
        k(    5) = (   0.3333333  -0.1646437  -0.3292874), wk =   0.6666667
        k(    6) = (   0.3333333  -0.6585748  -0.3292874), wk =   0.3333333

                       cryst. coord.
        k(    1) = (   0.0000000   0.0000000   0.0000000), wk =   0.1666667
        k(    2) = (   0.0000000   0.0000000  -0.5000000), wk =   0.3333333
        k(    3) = (   0.0000000  -0.5000000  -0.5000000), wk =   0.1666667
        k(    4) = (   0.3333333   0.0000000   0.0000000), wk =   0.3333333
        k(    5) = (   0.3333333   0.0000000  -0.5000000), wk =   0.6666667
        k(    6) = (   0.3333333  -0.5000000  -0.5000000), wk =   0.3333333

     Dense  grid:    98093 G-vectors     FFT dimensions: (  60,  72,  72)

     Smooth grid:    26399 G-vectors     FFT dimensions: (  40,  48,  48)

     Dynamical RAM for                 wfc:       1.91 MB

     Dynamical RAM for     wfc (w. buffer):      13.38 MB

     Dynamical RAM for           str. fact:       2.99 MB

     Dynamical RAM for           local pot:       0.00 MB

     Dynamical RAM for          nlocal pot:       3.22 MB

     Dynamical RAM for                qrad:       0.71 MB

     Dynamical RAM for          rho,v,vnew:      11.61 MB

     Dynamical RAM for               rhoin:       3.87 MB

     Dynamical RAM for            rho*nmix:      23.95 MB

     Dynamical RAM for           G-vectors:       5.81 MB

     Dynamical RAM for          h,s,v(r/c):       0.26 MB

     Dynamical RAM for          <psi|beta>:       0.04 MB

     Dynamical RAM for                 psi:       3.82 MB

     Dynamical RAM for                hpsi:       3.82 MB

     Dynamical RAM for                spsi:       3.82 MB

     Dynamical RAM for      wfcinit/wfcrot:       3.86 MB

     Dynamical RAM for           addusdens:      70.35 MB

     Dynamical RAM for          addusforce:      80.08 MB

     Dynamical RAM for         addusstress:      74.84 MB

     Estimated static dynamical RAM per process >      57.96 MB

     Estimated max dynamical RAM per process >     161.98 MB

     Check: negative core charge=   -0.000001

     Initial potential from superposition of free atoms

     starting charge      63.9742, renormalised to      64.0000
     Starting wfcs are   36 randomized atomic wfcs +    2 random wfcs

     total cpu time spent up to now is        2.2 secs

     Self-consistent Calculation

     iteration #  1     ecut=    25.00 Ry     beta= 0.40
     Davidson diagonalization with overlap

---- Real-time Memory Report at c_bands before calling an iterative solver
           117 MiB given to the printing process from OS
             0 MiB allocation reported by mallinfo(arena+hblkhd)
        212183 MiB available memory on the node where the printing process lives
------------------
     ethr =  1.00E-02,  avg # of iterations =  6.0

     total cpu time spent up to now is        4.6 secs

     total energy              =    -504.80837507 Ry
     estimated scf accuracy    <       1.61787314 Ry

     iteration #  2     ecut=    25.00 Ry     beta= 0.40
     Davidson diagonalization with overlap

---- Real-time Memory Report at c_bands before calling an iterative solver
           152 MiB given to the printing process from OS
             0 MiB allocation reported by mallinfo(arena+hblkhd)
        212161 MiB available memory on the node where the printing process lives
------------------
     ethr =  2.53E-03,  avg # of iterations =  2.0

     total cpu time spent up to now is        6.7 secs

     total energy              =    -504.91854589 Ry
     estimated scf accuracy    <       0.18234695 Ry

     iteration #  3     ecut=    25.00 Ry     beta= 0.40
     Davidson diagonalization with overlap

---- Real-time Memory Report at c_bands before calling an iterative solver
           153 MiB given to the printing process from OS
             0 MiB allocation reported by mallinfo(arena+hblkhd)
        212160 MiB available memory on the node where the printing process lives
------------------
     ethr =  2.85E-04,  avg # of iterations =  4.7

     total cpu time spent up to now is        8.9 secs

     total energy              =    -504.93900441 Ry
     estimated scf accuracy    <       0.01984805 Ry

     iteration #  4     ecut=    25.00 Ry     beta= 0.40
     Davidson diagonalization with overlap

---- Real-time Memory Report at c_bands before calling an iterative solver
           154 MiB given to the printing process from OS
             0 MiB allocation reported by mallinfo(arena+hblkhd)
        212159 MiB available memory on the node where the printing process lives
------------------
     ethr =  3.10E-05,  avg # of iterations =  3.5

     total cpu time spent up to now is       11.0 secs

     total energy              =    -504.94004712 Ry
     estimated scf accuracy    <       0.00164186 Ry

     iteration #  5     ecut=    25.00 Ry     beta= 0.40
     Davidson diagonalization with overlap

---- Real-time Memory Report at c_bands before calling an iterative solver
           154 MiB given to the printing process from OS
             0 MiB allocation reported by mallinfo(arena+hblkhd)
        212158 MiB available memory on the node where the printing process lives
------------------
     ethr =  2.57E-06,  avg # of iterations =  4.8

     total cpu time spent up to now is       13.2 secs

     total energy              =    -504.94015006 Ry
     estimated scf accuracy    <       0.00004446 Ry

     iteration #  6     ecut=    25.00 Ry     beta= 0.40
     Davidson diagonalization with overlap

---- Real-time Memory Report at c_bands before calling an iterative solver
           155 MiB given to the printing process from OS
             0 MiB allocation reported by mallinfo(arena+hblkhd)
        212158 MiB available memory on the node where the printing process lives
------------------
     ethr =  6.95E-08,  avg # of iterations =  2.3

     total cpu time spent up to now is       15.4 secs

     total energy              =    -504.94016711 Ry
     estimated scf accuracy    <       0.00000355 Ry

     iteration #  7     ecut=    25.00 Ry     beta= 0.40
     Davidson diagonalization with overlap

---- Real-time Memory Report at c_bands before calling an iterative solver
           156 MiB given to the printing process from OS
             0 MiB allocation reported by mallinfo(arena+hblkhd)
        212157 MiB available memory on the node where the printing process lives
------------------
     ethr =  5.55E-09,  avg # of iterations =  2.2

     total cpu time spent up to now is       17.5 secs

     total energy              =    -504.94016986 Ry
     estimated scf accuracy    <       0.00000134 Ry

     iteration #  8     ecut=    25.00 Ry     beta= 0.40
     Davidson diagonalization with overlap

---- Real-time Memory Report at c_bands before calling an iterative solver
           157 MiB given to the printing process from OS
             0 MiB allocation reported by mallinfo(arena+hblkhd)
        212156 MiB available memory on the node where the printing process lives
------------------
     ethr =  2.09E-09,  avg # of iterations =  2.0

     total cpu time spent up to now is       19.5 secs

     End of self-consistent calculation

          k = 0.0000 0.0000 0.0000 (  3317 PWs)   bands (ev):

   -55.3136 -55.2946 -55.1421 -55.1377 -25.3960 -25.3372 -24.7808 -24.7808
   -24.6632 -24.6632 -24.5560 -24.5560 -24.4401 -24.4401 -24.4117 -24.0196
   -12.4260 -12.0375 -12.0375 -11.7907  -2.0089  -1.3891  -1.1613  -1.0607
    -1.0607  -0.8842  -0.8842  -0.8387   0.8438   0.8438   0.8832   1.0038
     2.5096   5.0869   5.0871   6.2500   6.7838   7.7757

     occupation numbers 
     1.0000   1.0000   1.0000   1.0000   1.0000   1.0000   1.0000   1.0000
     1.0000   1.0000   1.0000   1.0000   1.0000   1.0000   1.0000   1.0000
     1.0000   1.0000   1.0000   1.0000   1.0000   1.0000   1.0000   1.0000
     1.0000   1.0000   1.0000   1.0000   1.0000   1.0000   1.0000   1.0000
     0.0000   0.0000   0.0000   0.0000   0.0000   0.0000

          k = 0.0000 0.0000-0.4939 (  3306 PWs)   bands (ev):

   -55.3001 -55.3001 -55.1416 -55.1416 -25.2607 -25.2607 -24.7384 -24.7384
   -24.6715 -24.6715 -24.5902 -24.5902 -24.5637 -24.5637 -24.0818 -24.0818
   -12.2383 -12.2383 -11.9191 -11.9191  -1.4117  -1.4117  -1.1848  -1.1848
    -1.0391  -1.0391  -0.3488  -0.3488  -0.1366  -0.1366   0.8860   0.8860
     3.7357   3.7357   6.0196   6.0196   7.6504   7.6504

     occupation numbers 
     1.0000   1.0000   1.0000   1.0000   1.0000   1.0000   1.0000   1.0000
     1.0000   1.0000   1.0000   1.0000   1.0000   1.0000   1.0000   1.0000
     1.0000   1.0000   1.0000   1.0000   1.0000   1.0000   1.0000   1.0000
     1.0000   1.0000   1.0000   1.0000   1.0000   1.0000   1.0000   1.0000
     0.0000   0.0000   0.0000   0.0000   0.0000   0.0000

          k = 0.0000-0.4939-0.4939 (  3254 PWs)   bands (ev):

   -55.2949 -55.2949 -55.1263 -55.1263 -25.1960 -25.1960 -24.6924 -24.6924
   -24.5047 -24.5047 -24.4523 -24.4523 -24.2382 -24.2382 -24.0635 -24.0635
   -12.1163 -12.1163 -12.0498 -12.0498  -1.4809  -1.4809  -0.8739  -0.8738
    -0.4776  -0.4776  -0.3471  -0.3471  -0.2282  -0.2282  -0.1151  -0.1151
     4.2689   4.2690   5.3139   5.3140   8.4479   8.4479

     occupation numbers 
     1.0000   1.0000   1.0000   1.0000   1.0000   1.0000   1.0000   1.0000
     1.0000   1.0000   1.0000   1.0000   1.0000   1.0000   1.0000   1.0000
     1.0000   1.0000   1.0000   1.0000   1.0000   1.0000   1.0000   1.0000
     1.0000   1.0000   1.0000   1.0000   1.0000   1.0000   1.0000   1.0000
     0.0000   0.0000   0.0000   0.0000   0.0000   0.0000

          k = 0.3333-0.1646 0.1646 (  3301 PWs)   bands (ev):

   -55.3055 -55.3018 -55.1409 -55.1313 -25.3132 -25.2347 -24.7755 -24.6725
   -24.6605 -24.6343 -24.5547 -24.4982 -24.4727 -24.3194 -24.2748 -24.2653
   -12.3442 -12.0645 -12.0417 -11.8530  -1.7806  -1.5718  -1.1736  -1.1126
    -0.9128  -0.8788  -0.6742  -0.6558   0.1876   0.3037   0.8658   0.9223
     3.6602   4.8556   5.7558   6.3556   6.9699   7.6100

     occupation numbers 
     1.0000   1.0000   1.0000   1.0000   1.0000   1.0000   1.0000   1.0000
     1.0000   1.0000   1.0000   1.0000   1.0000   1.0000   1.0000   1.0000
     1.0000   1.0000   1.0000   1.0000   1.0000   1.0000   1.0000   1.0000
     1.0000   1.0000   1.0000   1.0000   1.0000   1.0000   1.0000   1.0000
     0.0000   0.0000   0.0000   0.0000   0.0000   0.0000

          k = 0.3333-0.1646-0.3293 (  3297 PWs)   bands (ev):

   -55.3027 -55.3001 -55.1378 -55.1359 -25.3071 -25.2687 -24.7151 -24.6751
   -24.6610 -24.6389 -24.5373 -24.5068 -24.4631 -24.3897 -24.2092 -24.1833
   -12.3012 -12.1228 -12.0054 -11.8790  -1.6995  -1.4905  -1.2710  -1.0630
    -0.9296  -0.8398  -0.7070  -0.2903  -0.2259   0.2602   0.7177   0.8947
     3.9109   4.6369   5.7996   6.5263   6.8220   7.6591

     occupation numbers 
     1.0000   1.0000   1.0000   1.0000   1.0000   1.0000   1.0000   1.0000
     1.0000   1.0000   1.0000   1.0000   1.0000   1.0000   1.0000   1.0000
     1.0000   1.0000   1.0000   1.0000   1.0000   1.0000   1.0000   1.0000
     1.0000   1.0000   1.0000   1.0000   1.0000   1.0000   1.0000   1.0000
     0.0000   0.0000   0.0000   0.0000   0.0000   0.0000

          k = 0.3333-0.6586-0.3293 (  3288 PWs)   bands (ev):

   -55.2994 -55.2960 -55.1416 -55.1328 -25.3473 -25.2178 -24.6825 -24.6344
   -24.5982 -24.5676 -24.5335 -24.4942 -24.4769 -24.3250 -24.2564 -24.1775
   -12.2807 -12.0836 -12.0446 -11.9039  -1.7212  -1.5110  -1.1084  -1.0973
    -0.8499  -0.8303  -0.4125  -0.2788  -0.2087  -0.1866   0.7124   0.7131
     4.0621   4.6361   5.7740   6.0592   7.5444   7.6615

     occupation numbers 
     1.0000   1.0000   1.0000   1.0000   1.0000   1.0000   1.0000   1.0000
     1.0000   1.0000   1.0000   1.0000   1.0000   1.0000   1.0000   1.0000
     1.0000   1.0000   1.0000   1.0000   1.0000   1.0000   1.0000   1.0000
     1.0000   1.0000   1.0000   1.0000   1.0000   1.0000   1.0000   1.0000
     0.0000   0.0000   0.0000   0.0000   0.0000   0.0000

     the Fermi energy is     1.8955 ev

!    total energy              =    -504.94017108 Ry
     estimated scf accuracy    <       0.00000004 Ry
     smearing contrib. (-TS)   =       0.00000000 Ry
     internal energy E=F+TS    =    -504.94017108 Ry

     The total energy is F=E-TS. E is the sum of the following terms:
     one-electron contribution =    -405.30996105 Ry
     hartree contribution      =     212.73407925 Ry
     xc contribution           =     -83.42541139 Ry
     ewald contribution        =    -228.93887789 Ry

     convergence has been achieved in   8 iterations

     Forces acting on atoms (cartesian axes, Ry/au):

     atom    1 type  1   force =    -0.10712406   -0.00000000    0.00000000
     atom    2 type  1   force =    -0.10712406   -0.00000000    0.00000000
     atom    3 type  1   force =     0.10712406    0.00000000   -0.00000000
     atom    4 type  1   force =     0.10712406    0.00000000   -0.00000000
     atom    5 type  2   force =     0.00000000   -0.00000000    0.00000000
     atom    6 type  2   force =     0.00000000    0.00000000    0.00000000
     atom    7 type  2   force =     0.00000000   -0.00000000   -0.00000000
     atom    8 type  2   force =     0.00000000    0.00000000    0.00000000
     The non-local contrib.  to forces
     atom    1 type  1   force =     0.84141610   -0.00000000    0.00000000
     atom    2 type  1   force =     0.84141610    0.00000000   -0.00000000
     atom    3 type  1   force =    -0.84141610    0.00000000    0.00000000
     atom    4 type  1   force =    -0.84141610    0.00000000   -0.00000000
     atom    5 type  2   force =     0.00000000   -0.00000000    0.00000000
     atom    6 type  2   force =     0.00000000   -0.00000000   -0.00000000
     atom    7 type  2   force =     0.00000000    0.00000000   -0.00000000
     atom    8 type  2   force =     0.00000000    0.00000000    0.00000000
     The ionic contribution  to forces
     atom    1 type  1   force =    -2.71103330   -0.00000000    0.00000000
     atom    2 type  1   force =    -2.71103330    0.00000000   -0.00000000
     atom    3 type  1   force =     2.71103330   -0.00000000    0.00000000
     atom    4 type  1   force =     2.71103330   -0.00000000   -0.00000000
     atom    5 type  2   force =    -0.00000000    0.00000000    0.00000000
     atom    6 type  2   force =    -0.00000000   -0.00000000    0.00000000
     atom    7 type  2   force =     0.00000000    0.00000000   -0.00000000
     atom    8 type  2   force =    -0.00000000   -0.00000000   -0.00000000
     The local contribution  to forces
     atom    1 type  1   force =     1.76224395    0.00000000    0.00000000
     atom    2 type  1   force =     1.76224395    0.00000000    0.00000000
     atom    3 type  1   force =    -1.76224395    0.00000000    0.00000000
     atom    4 type  1   force =    -1.76224395    0.00000000    0.00000000
     atom    5 type  2   force =     0.00000000   -0.00000000   -0.00000000
     atom    6 type  2   force =    -0.00000000   -0.00000000    0.00000000
     atom    7 type  2   force =    -0.00000000   -0.00000000   -0.00000000
     atom    8 type  2   force =     0.00000000    0.00000000    0.00000000
     The core correction contribution to forces
     atom    1 type  1   force =    -0.00024024    0.00000035   -0.00000035
     atom    2 type  1   force =    -0.00024082    0.00000004   -0.00000004
     atom    3 type  1   force =     0.00024024   -0.00000035    0.00000035
     atom    4 type  1   force =     0.00024082   -0.00000004    0.00000004
     atom    5 type  2   force =    -0.00000000   -0.00000000   -0.00000000
     atom    6 type  2   force =    -0.00000000   -0.00000000   -0.00000000
     atom    7 type  2   force =    -0.00000000   -0.00000000   -0.00000000
     atom    8 type  2   force =     0.00000000    0.00000000    0.00000000
     The Hubbard contrib.    to forces
     atom    1 type  1   force =     0.00000000    0.00000000    0.00000000
     atom    2 type  1   force =     0.00000000    0.00000000    0.00000000
     atom    3 type  1   force =     0.00000000    0.00000000    0.00000000
     atom    4 type  1   force =     0.00000000    0.00000000    0.00000000
     atom    5 type  2   force =     0.00000000    0.00000000    0.00000000
     atom    6 type  2   force =     0.00000000    0.00000000    0.00000000
     atom    7 type  2   force =     0.00000000    0.00000000    0.00000000
     atom    8 type  2   force =     0.00000000    0.00000000    0.00000000
     The SCF correction term to forces
     atom    1 type  1   force =     0.00049002   -0.00000030    0.00000030
     atom    2 type  1   force =     0.00048941    0.00000005   -0.00000005
     atom    3 type  1   force =    -0.00049002    0.00000030   -0.00000030
     atom    4 type  1   force =    -0.00048941   -0.00000005    0.00000005
     atom    5 type  2   force =    -0.00000000   -0.00000000    0.00000000
     atom    6 type  2   force =    -0.00000000    0.00000000   -0.00000000
     atom    7 type  2   force =     0.00000000    0.00000000    0.00000000
     atom    8 type  2   force =    -0.00000000   -0.00000000   -0.00000000

     Total force =     0.214248     Total SCF correction =     0.000979


     Computing stress (Cartesian axis) and pressure

          total   stress  (Ry/bohr**3)                   (kbar)     P=    -1390.05
  -0.00943958  -0.00000000   0.00000000        -1388.61       -0.00        0.00
  -0.00000000  -0.00945431  -0.00000000           -0.00    -1390.78       -0.00
   0.00000000  -0.00000000  -0.00945431            0.00       -0.00    -1390.78

     kinetic stress (kbar)  10590.84     -0.00      0.00
                               -0.00  10749.72     -0.00
                                0.00     -0.00  10749.72

     local   stress (kbar) -19278.88      0.00     -0.00
                                0.00  -8977.61     -0.00
                               -0.00     -0.00  -8977.61

     nonloc. stress (kbar)   3263.01      0.00     -0.00
                                0.00   3290.41      0.00
                               -0.00      0.00   3290.41

     hartree stress (kbar)   9615.38     -0.00     -0.00
                               -0.00   5210.87      0.00
                               -0.00      0.00   5210.87

     exc-cor stress (kbar)  -2017.13      0.00     -0.00
                                0.00  -2017.28      0.00
                               -0.00      0.00  -2017.28

     corecor stress (kbar)   -430.15     -0.00      0.00
                               -0.00   -431.01     -0.00
                                0.00     -0.00   -431.01

     ewald   stress (kbar)  -3131.68     -0.00     -0.00
                               -0.00  -9215.87      0.00
                               -0.00      0.00  -9215.87

     hubbard stress (kbar)      0.00      0.00      0.00
                                0.00      0.00      0.00
                                0.00      0.00      0.00

     DFT-D   stress (kbar)      0.00      0.00      0.00
                                0.00      0.00      0.00
                                0.00      0.00      0.00

     XDM     stress (kbar)      0.00      0.00      0.00
                                0.00      0.00      0.00
                                0.00      0.00      0.00

     dft-nl  stress (kbar)      0.00      0.00      0.00
                                0.00      0.00      0.00
                                0.00      0.00      0.00

     TS-vdW  stress (kbar)      0.00      0.00      0.00
                                0.00      0.00      0.00
                                0.00      0.00      0.00

     MDB     stress (kbar)      0.00      0.00      0.00
                                0.00      0.00      0.00
                                0.00      0.00      0.00

     3D-RISM stress (kbar)      0.00      0.00      0.00
                                0.00      0.00      0.00
                                0.00      0.00      0.00


     Writing all to output data dir ./test.save/

     init_run     :      2.64s CPU      1.99s WALL (       1 calls)
     electrons    :     35.32s CPU     17.30s WALL (       1 calls)
     forces       :      1.38s CPU      1.13s WALL (       1 calls)
     stress       :      4.84s CPU      3.40s WALL (       1 calls)

     Called by init_run:
     wfcinit      :      1.20s CPU      0.57s WALL (       1 calls)
     wfcinit:atom :      0.02s CPU      0.01s WALL (       6 calls)
     wfcinit:wfcr :      1.15s CPU      0.54s WALL (       6 calls)
     potinit      :      0.44s CPU      0.46s WALL (       1 calls)
     hinit0       :      0.82s CPU      0.82s WALL (       1 calls)

     Called by electrons:
     c_bands      :     24.40s CPU     10.98s WALL (       8 calls)
     sum_band     :      7.75s CPU      3.42s WALL (       8 calls)
     v_of_rho     :      1.88s CPU      1.98s WALL (       9 calls)
     v_h          :      0.07s CPU      0.08s WALL (       9 calls)
     v_xc         :      2.20s CPU      2.32s WALL (      11 calls)
     newd         :      1.40s CPU      1.02s WALL (       9 calls)
     mix_rho      :      0.09s CPU      0.09s WALL (       8 calls)

     Called by c_bands:
     init_us_2    :      0.26s CPU      0.12s WALL (     114 calls)
     init_us_2:cp :      0.26s CPU      0.12s WALL (     114 calls)
     cegterg      :     23.81s CPU     10.76s WALL (      48 calls)

     Called by sum_band:
     sum_band:wei :      0.01s CPU      0.01s WALL (       8 calls)
     sum_band:loo :      5.42s CPU      2.33s WALL (       8 calls)
     sum_band:buf :      0.03s CPU      0.01s WALL (      48 calls)
     sum_band:ini :      0.11s CPU      0.05s WALL (      48 calls)
     sum_band:cal :      0.10s CPU      0.04s WALL (      48 calls)
     sum_band:bec :      0.00s CPU      0.00s WALL (      48 calls)
     addusdens    :      1.41s CPU      0.65s WALL (       8 calls)
                                        0.00s GPU  (       8 calls)
     addusd:skk   :      0.05s CPU      0.02s WALL (      16 calls)
                                        0.00s GPU  (      16 calls)

     Called by *egterg:
     cdiaghg      :      0.82s CPU      0.32s WALL (     213 calls)
     cegterg:over :      0.40s CPU      0.13s WALL (     165 calls)
     cegterg:upda :      0.30s CPU      0.10s WALL (     165 calls)
     cegterg:last :      0.52s CPU      0.17s WALL (      96 calls)
     h_psi        :     22.21s CPU     10.32s WALL (     219 calls)
     s_psi        :      0.25s CPU      0.09s WALL (     219 calls)
     g_psi        :      0.09s CPU      0.03s WALL (     165 calls)

     Called by h_psi:
     h_psi:calbec :      0.38s CPU      0.12s WALL (     219 calls)
     vloc_psi     :     21.44s CPU     10.07s WALL (     219 calls)
     add_vuspsi   :      0.29s CPU      0.10s WALL (     219 calls)

     General routines
     calbec       :      0.57s CPU      0.20s WALL (     297 calls)
     fft          :      0.81s CPU      0.79s WALL (     140 calls)
     ffts         :      0.05s CPU      0.03s WALL (      17 calls)
     fftw         :     21.34s CPU      9.98s WALL (   11232 calls)
     interpolate  :      0.09s CPU      0.09s WALL (       9 calls)


     PWSCF        :     44.51s CPU     24.06s WALL


   This run was terminated on:   9:43:44  16Feb2024            

=------------------------------------------------------------------------------=
   JOB DONE.
=------------------------------------------------------------------------------=
